V -t * -v 1.0a5 -a 0
A -t * -n 1 -p 0 -o 0x7fffffff -c 30 -a 1
A -t * -h 1 -m 1073741823 -s 0
n -t * -a 0 -s 0 -S UP -v circle -c black -i black
n -t * -a 1 -s 1 -S UP -v circle -c black -i black
n -t * -a 2 -s 2 -S UP -v circle -c black -i black
n -t * -a 3 -s 3 -S UP -v circle -c black -i black
l -t * -s 0 -d 1 -S UP -r 1000000 -D 0.01 -c black
l -t * -s 0 -d 2 -S UP -r 1000000 -D 0.01 -c black
l -t * -s 0 -d 3 -S UP -r 1000000 -D 0.01 -c black
l -t * -s 1 -d 2 -S UP -r 1000000 -D 0.01 -c black
l -t * -s 1 -d 3 -S UP -r 1000000 -D 0.01 -c black
l -t * -s 2 -d 3 -S UP -r 1000000 -D 0.01 -c black
+ -t 0.5 -s 1 -d 3 -p tcp -e 40 -c 1 -i 0 -a 1 -x {1.0 3.0 0 ------- null}
- -t 0.5 -s 1 -d 3 -p tcp -e 40 -c 1 -i 0 -a 1 -x {1.0 3.0 0 ------- null}
h -t 0.5 -s 1 -d 3 -p tcp -e 40 -c 1 -i 0 -a 1 -x {1.0 3.0 -1 ------- null}
r -t 0.51032 -s 1 -d 3 -p tcp -e 40 -c 1 -i 0 -a 1 -x {1.0 3.0 0 ------- null}
+ -t 0.51032 -s 3 -d 1 -p ack -e 40 -c 1 -i 1 -a 1 -x {3.0 1.0 0 ------- null}
- -t 0.51032 -s 3 -d 1 -p ack -e 40 -c 1 -i 1 -a 1 -x {3.0 1.0 0 ------- null}
h -t 0.51032 -s 3 -d 1 -p ack -e 40 -c 1 -i 1 -a 1 -x {3.0 1.0 -1 ------- null}
r -t 0.52064 -s 3 -d 1 -p ack -e 40 -c 1 -i 1 -a 1 -x {3.0 1.0 0 ------- null}
+ -t 0.52064 -s 1 -d 3 -p tcp -e 1040 -c 1 -i 2 -a 1 -x {1.0 3.0 1 ------- null}
- -t 0.52064 -s 1 -d 3 -p tcp -e 1040 -c 1 -i 2 -a 1 -x {1.0 3.0 1 ------- null}
h -t 0.52064 -s 1 -d 3 -p tcp -e 1040 -c 1 -i 2 -a 1 -x {1.0 3.0 -1 ------- null}
+ -t 0.52064 -s 1 -d 3 -p tcp -e 1040 -c 1 -i 3 -a 1 -x {1.0 3.0 2 ------- null}
- -t 0.52896 -s 1 -d 3 -p tcp -e 1040 -c 1 -i 3 -a 1 -x {1.0 3.0 2 ------- null}
h -t 0.52896 -s 1 -d 3 -p tcp -e 1040 -c 1 -i 3 -a 1 -x {1.0 3.0 -1 ------- null}
r -t 0.53896 -s 1 -d 3 -p tcp -e 1040 -c 1 -i 2 -a 1 -x {1.0 3.0 1 ------- null}
+ -t 0.53896 -s 3 -d 1 -p ack -e 40 -c 1 -i 4 -a 1 -x {3.0 1.0 1 ------- null}
- -t 0.53896 -s 3 -d 1 -p ack -e 40 -c 1 -i 4 -a 1 -x {3.0 1.0 1 ------- null}
h -t 0.53896 -s 3 -d 1 -p ack -e 40 -c 1 -i 4 -a 1 -x {3.0 1.0 -1 ------- null}
r -t 0.54728 -s 1 -d 3 -p tcp -e 1040 -c 1 -i 3 -a 1 -x {1.0 3.0 2 ------- null}
+ -t 0.54728 -s 3 -d 1 -p ack -e 40 -c 1 -i 5 -a 1 -x {3.0 1.0 2 ------- null}
- -t 0.54728 -s 3 -d 1 -p ack -e 40 -c 1 -i 5 -a 1 -x {3.0 1.0 2 ------- null}
h -t 0.54728 -s 3 -d 1 -p ack -e 40 -c 1 -i 5 -a 1 -x {3.0 1.0 -1 ------- null}
r -t 0.54928 -s 3 -d 1 -p ack -e 40 -c 1 -i 4 -a 1 -x {3.0 1.0 1 ------- null}
+ -t 0.54928 -s 1 -d 3 -p tcp -e 1040 -c 1 -i 6 -a 1 -x {1.0 3.0 3 ------- null}
- -t 0.54928 -s 1 -d 3 -p tcp -e 1040 -c 1 -i 6 -a 1 -x {1.0 3.0 3 ------- null}
h -t 0.54928 -s 1 -d 3 -p tcp -e 1040 -c 1 -i 6 -a 1 -x {1.0 3.0 -1 ------- null}
+ -t 0.54928 -s 1 -d 3 -p tcp -e 1040 -c 1 -i 7 -a 1 -x {1.0 3.0 4 ------- null}
r -t 0.5576 -s 3 -d 1 -p ack -e 40 -c 1 -i 5 -a 1 -x {3.0 1.0 2 ------- null}
+ -t 0.5576 -s 1 -d 3 -p tcp -e 1040 -c 1 -i 8 -a 1 -x {1.0 3.0 5 ------- null}
+ -t 0.5576 -s 1 -d 3 -p tcp -e 1040 -c 1 -i 9 -a 1 -x {1.0 3.0 6 ------- null}
- -t 0.5576 -s 1 -d 3 -p tcp -e 1040 -c 1 -i 7 -a 1 -x {1.0 3.0 4 ------- null}
h -t 0.5576 -s 1 -d 3 -p tcp -e 1040 -c 1 -i 7 -a 1 -x {1.0 3.0 -1 ------- null}
- -t 0.56592 -s 1 -d 3 -p tcp -e 1040 -c 1 -i 8 -a 1 -x {1.0 3.0 5 ------- null}
h -t 0.56592 -s 1 -d 3 -p tcp -e 1040 -c 1 -i 8 -a 1 -x {1.0 3.0 -1 ------- null}
r -t 0.5676 -s 1 -d 3 -p tcp -e 1040 -c 1 -i 6 -a 1 -x {1.0 3.0 3 ------- null}
+ -t 0.5676 -s 3 -d 1 -p ack -e 40 -c 1 -i 10 -a 1 -x {3.0 1.0 3 ------- null}
- -t 0.5676 -s 3 -d 1 -p ack -e 40 -c 1 -i 10 -a 1 -x {3.0 1.0 3 ------- null}
h -t 0.5676 -s 3 -d 1 -p ack -e 40 -c 1 -i 10 -a 1 -x {3.0 1.0 -1 ------- null}
- -t 0.57424 -s 1 -d 3 -p tcp -e 1040 -c 1 -i 9 -a 1 -x {1.0 3.0 6 ------- null}
h -t 0.57424 -s 1 -d 3 -p tcp -e 1040 -c 1 -i 9 -a 1 -x {1.0 3.0 -1 ------- null}
r -t 0.57592 -s 1 -d 3 -p tcp -e 1040 -c 1 -i 7 -a 1 -x {1.0 3.0 4 ------- null}
+ -t 0.57592 -s 3 -d 1 -p ack -e 40 -c 1 -i 11 -a 1 -x {3.0 1.0 4 ------- null}
- -t 0.57592 -s 3 -d 1 -p ack -e 40 -c 1 -i 11 -a 1 -x {3.0 1.0 4 ------- null}
h -t 0.57592 -s 3 -d 1 -p ack -e 40 -c 1 -i 11 -a 1 -x {3.0 1.0 -1 ------- null}
r -t 0.57792 -s 3 -d 1 -p ack -e 40 -c 1 -i 10 -a 1 -x {3.0 1.0 3 ------- null}
+ -t 0.57792 -s 1 -d 3 -p tcp -e 1040 -c 1 -i 12 -a 1 -x {1.0 3.0 7 ------- null}
+ -t 0.57792 -s 1 -d 3 -p tcp -e 1040 -c 1 -i 13 -a 1 -x {1.0 3.0 8 ------- null}
- -t 0.58256 -s 1 -d 3 -p tcp -e 1040 -c 1 -i 12 -a 1 -x {1.0 3.0 7 ------- null}
h -t 0.58256 -s 1 -d 3 -p tcp -e 1040 -c 1 -i 12 -a 1 -x {1.0 3.0 -1 ------- null}
r -t 0.58424 -s 1 -d 3 -p tcp -e 1040 -c 1 -i 8 -a 1 -x {1.0 3.0 5 ------- null}
+ -t 0.58424 -s 3 -d 1 -p ack -e 40 -c 1 -i 14 -a 1 -x {3.0 1.0 5 ------- null}
- -t 0.58424 -s 3 -d 1 -p ack -e 40 -c 1 -i 14 -a 1 -x {3.0 1.0 5 ------- null}
h -t 0.58424 -s 3 -d 1 -p ack -e 40 -c 1 -i 14 -a 1 -x {3.0 1.0 -1 ------- null}
r -t 0.58624 -s 3 -d 1 -p ack -e 40 -c 1 -i 11 -a 1 -x {3.0 1.0 4 ------- null}
+ -t 0.58624 -s 1 -d 3 -p tcp -e 1040 -c 1 -i 15 -a 1 -x {1.0 3.0 9 ------- null}
+ -t 0.59 -s 1 -d 3 -p tcp -e 1040 -c 1 -i 16 -a 1 -x {1.0 3.0 10 ------- null}
- -t 0.59088 -s 1 -d 3 -p tcp -e 1040 -c 1 -i 13 -a 1 -x {1.0 3.0 8 ------- null}
h -t 0.59088 -s 1 -d 3 -p tcp -e 1040 -c 1 -i 13 -a 1 -x {1.0 3.0 -1 ------- null}
r -t 0.59256 -s 1 -d 3 -p tcp -e 1040 -c 1 -i 9 -a 1 -x {1.0 3.0 6 ------- null}
+ -t 0.59256 -s 3 -d 1 -p ack -e 40 -c 1 -i 17 -a 1 -x {3.0 1.0 6 ------- null}
- -t 0.59256 -s 3 -d 1 -p ack -e 40 -c 1 -i 17 -a 1 -x {3.0 1.0 6 ------- null}
h -t 0.59256 -s 3 -d 1 -p ack -e 40 -c 1 -i 17 -a 1 -x {3.0 1.0 -1 ------- null}
r -t 0.59456 -s 3 -d 1 -p ack -e 40 -c 1 -i 14 -a 1 -x {3.0 1.0 5 ------- null}
- -t 0.5992 -s 1 -d 3 -p tcp -e 1040 -c 1 -i 15 -a 1 -x {1.0 3.0 9 ------- null}
h -t 0.5992 -s 1 -d 3 -p tcp -e 1040 -c 1 -i 15 -a 1 -x {1.0 3.0 -1 ------- null}
+ -t 0.6 -s 1 -d 3 -p tcp -e 1040 -c 1 -i 18 -a 1 -x {1.0 3.0 11 ------- null}
r -t 0.60088 -s 1 -d 3 -p tcp -e 1040 -c 1 -i 12 -a 1 -x {1.0 3.0 7 ------- null}
+ -t 0.60088 -s 3 -d 1 -p ack -e 40 -c 1 -i 19 -a 1 -x {3.0 1.0 7 ------- null}
- -t 0.60088 -s 3 -d 1 -p ack -e 40 -c 1 -i 19 -a 1 -x {3.0 1.0 7 ------- null}
h -t 0.60088 -s 3 -d 1 -p ack -e 40 -c 1 -i 19 -a 1 -x {3.0 1.0 -1 ------- null}
r -t 0.60288 -s 3 -d 1 -p ack -e 40 -c 1 -i 17 -a 1 -x {3.0 1.0 6 ------- null}
- -t 0.60752 -s 1 -d 3 -p tcp -e 1040 -c 1 -i 16 -a 1 -x {1.0 3.0 10 ------- null}
h -t 0.60752 -s 1 -d 3 -p tcp -e 1040 -c 1 -i 16 -a 1 -x {1.0 3.0 -1 ------- null}
r -t 0.6092 -s 1 -d 3 -p tcp -e 1040 -c 1 -i 13 -a 1 -x {1.0 3.0 8 ------- null}
+ -t 0.6092 -s 3 -d 1 -p ack -e 40 -c 1 -i 20 -a 1 -x {3.0 1.0 8 ------- null}
- -t 0.6092 -s 3 -d 1 -p ack -e 40 -c 1 -i 20 -a 1 -x {3.0 1.0 8 ------- null}
h -t 0.6092 -s 3 -d 1 -p ack -e 40 -c 1 -i 20 -a 1 -x {3.0 1.0 -1 ------- null}
+ -t 0.61 -s 1 -d 3 -p tcp -e 1040 -c 1 -i 21 -a 1 -x {1.0 3.0 12 ------- null}
r -t 0.6112 -s 3 -d 1 -p ack -e 40 -c 1 -i 19 -a 1 -x {3.0 1.0 7 ------- null}
- -t 0.61584 -s 1 -d 3 -p tcp -e 1040 -c 1 -i 18 -a 1 -x {1.0 3.0 11 ------- null}
h -t 0.61584 -s 1 -d 3 -p tcp -e 1040 -c 1 -i 18 -a 1 -x {1.0 3.0 -1 ------- null}
r -t 0.61752 -s 1 -d 3 -p tcp -e 1040 -c 1 -i 15 -a 1 -x {1.0 3.0 9 ------- null}
+ -t 0.61752 -s 3 -d 1 -p ack -e 40 -c 1 -i 22 -a 1 -x {3.0 1.0 9 ------- null}
- -t 0.61752 -s 3 -d 1 -p ack -e 40 -c 1 -i 22 -a 1 -x {3.0 1.0 9 ------- null}
h -t 0.61752 -s 3 -d 1 -p ack -e 40 -c 1 -i 22 -a 1 -x {3.0 1.0 -1 ------- null}
r -t 0.61952 -s 3 -d 1 -p ack -e 40 -c 1 -i 20 -a 1 -x {3.0 1.0 8 ------- null}
+ -t 0.62 -s 1 -d 3 -p tcp -e 1040 -c 1 -i 23 -a 1 -x {1.0 3.0 13 ------- null}
- -t 0.62416 -s 1 -d 3 -p tcp -e 1040 -c 1 -i 21 -a 1 -x {1.0 3.0 12 ------- null}
h -t 0.62416 -s 1 -d 3 -p tcp -e 1040 -c 1 -i 21 -a 1 -x {1.0 3.0 -1 ------- null}
r -t 0.62584 -s 1 -d 3 -p tcp -e 1040 -c 1 -i 16 -a 1 -x {1.0 3.0 10 ------- null}
+ -t 0.62584 -s 3 -d 1 -p ack -e 40 -c 1 -i 24 -a 1 -x {3.0 1.0 10 ------- null}
- -t 0.62584 -s 3 -d 1 -p ack -e 40 -c 1 -i 24 -a 1 -x {3.0 1.0 10 ------- null}
h -t 0.62584 -s 3 -d 1 -p ack -e 40 -c 1 -i 24 -a 1 -x {3.0 1.0 -1 ------- null}
r -t 0.62784 -s 3 -d 1 -p ack -e 40 -c 1 -i 22 -a 1 -x {3.0 1.0 9 ------- null}
+ -t 0.63 -s 1 -d 3 -p tcp -e 1040 -c 1 -i 25 -a 1 -x {1.0 3.0 14 ------- null}
- -t 0.63248 -s 1 -d 3 -p tcp -e 1040 -c 1 -i 23 -a 1 -x {1.0 3.0 13 ------- null}
h -t 0.63248 -s 1 -d 3 -p tcp -e 1040 -c 1 -i 23 -a 1 -x {1.0 3.0 -1 ------- null}
r -t 0.63416 -s 1 -d 3 -p tcp -e 1040 -c 1 -i 18 -a 1 -x {1.0 3.0 11 ------- null}
+ -t 0.63416 -s 3 -d 1 -p ack -e 40 -c 1 -i 26 -a 1 -x {3.0 1.0 11 ------- null}
- -t 0.63416 -s 3 -d 1 -p ack -e 40 -c 1 -i 26 -a 1 -x {3.0 1.0 11 ------- null}
h -t 0.63416 -s 3 -d 1 -p ack -e 40 -c 1 -i 26 -a 1 -x {3.0 1.0 -1 ------- null}
r -t 0.63616 -s 3 -d 1 -p ack -e 40 -c 1 -i 24 -a 1 -x {3.0 1.0 10 ------- null}
+ -t 0.64 -s 1 -d 3 -p tcp -e 1040 -c 1 -i 27 -a 1 -x {1.0 3.0 15 ------- null}
- -t 0.6408 -s 1 -d 3 -p tcp -e 1040 -c 1 -i 25 -a 1 -x {1.0 3.0 14 ------- null}
h -t 0.6408 -s 1 -d 3 -p tcp -e 1040 -c 1 -i 25 -a 1 -x {1.0 3.0 -1 ------- null}
r -t 0.64248 -s 1 -d 3 -p tcp -e 1040 -c 1 -i 21 -a 1 -x {1.0 3.0 12 ------- null}
+ -t 0.64248 -s 3 -d 1 -p ack -e 40 -c 1 -i 28 -a 1 -x {3.0 1.0 12 ------- null}
- -t 0.64248 -s 3 -d 1 -p ack -e 40 -c 1 -i 28 -a 1 -x {3.0 1.0 12 ------- null}
h -t 0.64248 -s 3 -d 1 -p ack -e 40 -c 1 -i 28 -a 1 -x {3.0 1.0 -1 ------- null}
r -t 0.64448 -s 3 -d 1 -p ack -e 40 -c 1 -i 26 -a 1 -x {3.0 1.0 11 ------- null}
- -t 0.64912 -s 1 -d 3 -p tcp -e 1040 -c 1 -i 27 -a 1 -x {1.0 3.0 15 ------- null}
h -t 0.64912 -s 1 -d 3 -p tcp -e 1040 -c 1 -i 27 -a 1 -x {1.0 3.0 -1 ------- null}
+ -t 0.65 -s 1 -d 3 -p tcp -e 1040 -c 1 -i 29 -a 1 -x {1.0 3.0 16 ------- null}
r -t 0.6508 -s 1 -d 3 -p tcp -e 1040 -c 1 -i 23 -a 1 -x {1.0 3.0 13 ------- null}
+ -t 0.6508 -s 3 -d 1 -p ack -e 40 -c 1 -i 30 -a 1 -x {3.0 1.0 13 ------- null}
- -t 0.6508 -s 3 -d 1 -p ack -e 40 -c 1 -i 30 -a 1 -x {3.0 1.0 13 ------- null}
h -t 0.6508 -s 3 -d 1 -p ack -e 40 -c 1 -i 30 -a 1 -x {3.0 1.0 -1 ------- null}
r -t 0.6528 -s 3 -d 1 -p ack -e 40 -c 1 -i 28 -a 1 -x {3.0 1.0 12 ------- null}
- -t 0.65744 -s 1 -d 3 -p tcp -e 1040 -c 1 -i 29 -a 1 -x {1.0 3.0 16 ------- null}
h -t 0.65744 -s 1 -d 3 -p tcp -e 1040 -c 1 -i 29 -a 1 -x {1.0 3.0 -1 ------- null}
r -t 0.65912 -s 1 -d 3 -p tcp -e 1040 -c 1 -i 25 -a 1 -x {1.0 3.0 14 ------- null}
+ -t 0.65912 -s 3 -d 1 -p ack -e 40 -c 1 -i 31 -a 1 -x {3.0 1.0 14 ------- null}
- -t 0.65912 -s 3 -d 1 -p ack -e 40 -c 1 -i 31 -a 1 -x {3.0 1.0 14 ------- null}
h -t 0.65912 -s 3 -d 1 -p ack -e 40 -c 1 -i 31 -a 1 -x {3.0 1.0 -1 ------- null}
+ -t 0.66 -s 1 -d 3 -p tcp -e 1040 -c 1 -i 32 -a 1 -x {1.0 3.0 17 ------- null}
r -t 0.66112 -s 3 -d 1 -p ack -e 40 -c 1 -i 30 -a 1 -x {3.0 1.0 13 ------- null}
- -t 0.66576 -s 1 -d 3 -p tcp -e 1040 -c 1 -i 32 -a 1 -x {1.0 3.0 17 ------- null}
h -t 0.66576 -s 1 -d 3 -p tcp -e 1040 -c 1 -i 32 -a 1 -x {1.0 3.0 -1 ------- null}
r -t 0.66744 -s 1 -d 3 -p tcp -e 1040 -c 1 -i 27 -a 1 -x {1.0 3.0 15 ------- null}
+ -t 0.66744 -s 3 -d 1 -p ack -e 40 -c 1 -i 33 -a 1 -x {3.0 1.0 15 ------- null}
- -t 0.66744 -s 3 -d 1 -p ack -e 40 -c 1 -i 33 -a 1 -x {3.0 1.0 15 ------- null}
h -t 0.66744 -s 3 -d 1 -p ack -e 40 -c 1 -i 33 -a 1 -x {3.0 1.0 -1 ------- null}
r -t 0.66944 -s 3 -d 1 -p ack -e 40 -c 1 -i 31 -a 1 -x {3.0 1.0 14 ------- null}
+ -t 0.67 -s 1 -d 3 -p tcp -e 1040 -c 1 -i 34 -a 1 -x {1.0 3.0 18 ------- null}
- -t 0.67408 -s 1 -d 3 -p tcp -e 1040 -c 1 -i 34 -a 1 -x {1.0 3.0 18 ------- null}
h -t 0.67408 -s 1 -d 3 -p tcp -e 1040 -c 1 -i 34 -a 1 -x {1.0 3.0 -1 ------- null}
r -t 0.67576 -s 1 -d 3 -p tcp -e 1040 -c 1 -i 29 -a 1 -x {1.0 3.0 16 ------- null}
+ -t 0.67576 -s 3 -d 1 -p ack -e 40 -c 1 -i 35 -a 1 -x {3.0 1.0 16 ------- null}
- -t 0.67576 -s 3 -d 1 -p ack -e 40 -c 1 -i 35 -a 1 -x {3.0 1.0 16 ------- null}
h -t 0.67576 -s 3 -d 1 -p ack -e 40 -c 1 -i 35 -a 1 -x {3.0 1.0 -1 ------- null}
r -t 0.67776 -s 3 -d 1 -p ack -e 40 -c 1 -i 33 -a 1 -x {3.0 1.0 15 ------- null}
+ -t 0.68 -s 1 -d 3 -p tcp -e 1040 -c 1 -i 36 -a 1 -x {1.0 3.0 19 ------- null}
- -t 0.6824 -s 1 -d 3 -p tcp -e 1040 -c 1 -i 36 -a 1 -x {1.0 3.0 19 ------- null}
h -t 0.6824 -s 1 -d 3 -p tcp -e 1040 -c 1 -i 36 -a 1 -x {1.0 3.0 -1 ------- null}
r -t 0.68408 -s 1 -d 3 -p tcp -e 1040 -c 1 -i 32 -a 1 -x {1.0 3.0 17 ------- null}
+ -t 0.68408 -s 3 -d 1 -p ack -e 40 -c 1 -i 37 -a 1 -x {3.0 1.0 17 ------- null}
- -t 0.68408 -s 3 -d 1 -p ack -e 40 -c 1 -i 37 -a 1 -x {3.0 1.0 17 ------- null}
h -t 0.68408 -s 3 -d 1 -p ack -e 40 -c 1 -i 37 -a 1 -x {3.0 1.0 -1 ------- null}
r -t 0.68608 -s 3 -d 1 -p ack -e 40 -c 1 -i 35 -a 1 -x {3.0 1.0 16 ------- null}
+ -t 0.69 -s 1 -d 3 -p tcp -e 1040 -c 1 -i 38 -a 1 -x {1.0 3.0 20 ------- null}
- -t 0.69072 -s 1 -d 3 -p tcp -e 1040 -c 1 -i 38 -a 1 -x {1.0 3.0 20 ------- null}
h -t 0.69072 -s 1 -d 3 -p tcp -e 1040 -c 1 -i 38 -a 1 -x {1.0 3.0 -1 ------- null}
r -t 0.6924 -s 1 -d 3 -p tcp -e 1040 -c 1 -i 34 -a 1 -x {1.0 3.0 18 ------- null}
+ -t 0.6924 -s 3 -d 1 -p ack -e 40 -c 1 -i 39 -a 1 -x {3.0 1.0 18 ------- null}
- -t 0.6924 -s 3 -d 1 -p ack -e 40 -c 1 -i 39 -a 1 -x {3.0 1.0 18 ------- null}
h -t 0.6924 -s 3 -d 1 -p ack -e 40 -c 1 -i 39 -a 1 -x {3.0 1.0 -1 ------- null}
r -t 0.6944 -s 3 -d 1 -p ack -e 40 -c 1 -i 37 -a 1 -x {3.0 1.0 17 ------- null}
+ -t 0.7 -s 1 -d 3 -p tcp -e 1040 -c 1 -i 40 -a 1 -x {1.0 3.0 21 ------- null}
- -t 0.7 -s 1 -d 3 -p tcp -e 1040 -c 1 -i 40 -a 1 -x {1.0 3.0 21 ------- null}
h -t 0.7 -s 1 -d 3 -p tcp -e 1040 -c 1 -i 40 -a 1 -x {1.0 3.0 -1 ------- null}
r -t 0.70072 -s 1 -d 3 -p tcp -e 1040 -c 1 -i 36 -a 1 -x {1.0 3.0 19 ------- null}
+ -t 0.70072 -s 3 -d 1 -p ack -e 40 -c 1 -i 41 -a 1 -x {3.0 1.0 19 ------- null}
- -t 0.70072 -s 3 -d 1 -p ack -e 40 -c 1 -i 41 -a 1 -x {3.0 1.0 19 ------- null}
h -t 0.70072 -s 3 -d 1 -p ack -e 40 -c 1 -i 41 -a 1 -x {3.0 1.0 -1 ------- null}
r -t 0.70272 -s 3 -d 1 -p ack -e 40 -c 1 -i 39 -a 1 -x {3.0 1.0 18 ------- null}
r -t 0.70904 -s 1 -d 3 -p tcp -e 1040 -c 1 -i 38 -a 1 -x {1.0 3.0 20 ------- null}
+ -t 0.70904 -s 3 -d 1 -p ack -e 40 -c 1 -i 42 -a 1 -x {3.0 1.0 20 ------- null}
- -t 0.70904 -s 3 -d 1 -p ack -e 40 -c 1 -i 42 -a 1 -x {3.0 1.0 20 ------- null}
h -t 0.70904 -s 3 -d 1 -p ack -e 40 -c 1 -i 42 -a 1 -x {3.0 1.0 -1 ------- null}
+ -t 0.71 -s 1 -d 3 -p tcp -e 1040 -c 1 -i 43 -a 1 -x {1.0 3.0 22 ------- null}
- -t 0.71 -s 1 -d 3 -p tcp -e 1040 -c 1 -i 43 -a 1 -x {1.0 3.0 22 ------- null}
h -t 0.71 -s 1 -d 3 -p tcp -e 1040 -c 1 -i 43 -a 1 -x {1.0 3.0 -1 ------- null}
r -t 0.71104 -s 3 -d 1 -p ack -e 40 -c 1 -i 41 -a 1 -x {3.0 1.0 19 ------- null}
r -t 0.71832 -s 1 -d 3 -p tcp -e 1040 -c 1 -i 40 -a 1 -x {1.0 3.0 21 ------- null}
+ -t 0.71832 -s 3 -d 1 -p ack -e 40 -c 1 -i 44 -a 1 -x {3.0 1.0 21 ------- null}
- -t 0.71832 -s 3 -d 1 -p ack -e 40 -c 1 -i 44 -a 1 -x {3.0 1.0 21 ------- null}
h -t 0.71832 -s 3 -d 1 -p ack -e 40 -c 1 -i 44 -a 1 -x {3.0 1.0 -1 ------- null}
r -t 0.71936 -s 3 -d 1 -p ack -e 40 -c 1 -i 42 -a 1 -x {3.0 1.0 20 ------- null}
+ -t 0.72 -s 1 -d 3 -p tcp -e 1040 -c 1 -i 45 -a 1 -x {1.0 3.0 23 ------- null}
- -t 0.72 -s 1 -d 3 -p tcp -e 1040 -c 1 -i 45 -a 1 -x {1.0 3.0 23 ------- null}
h -t 0.72 -s 1 -d 3 -p tcp -e 1040 -c 1 -i 45 -a 1 -x {1.0 3.0 -1 ------- null}
r -t 0.72832 -s 1 -d 3 -p tcp -e 1040 -c 1 -i 43 -a 1 -x {1.0 3.0 22 ------- null}
+ -t 0.72832 -s 3 -d 1 -p ack -e 40 -c 1 -i 46 -a 1 -x {3.0 1.0 22 ------- null}
- -t 0.72832 -s 3 -d 1 -p ack -e 40 -c 1 -i 46 -a 1 -x {3.0 1.0 22 ------- null}
h -t 0.72832 -s 3 -d 1 -p ack -e 40 -c 1 -i 46 -a 1 -x {3.0 1.0 -1 ------- null}
r -t 0.72864 -s 3 -d 1 -p ack -e 40 -c 1 -i 44 -a 1 -x {3.0 1.0 21 ------- null}
+ -t 0.73 -s 1 -d 3 -p tcp -e 1040 -c 1 -i 47 -a 1 -x {1.0 3.0 24 ------- null}
- -t 0.73 -s 1 -d 3 -p tcp -e 1040 -c 1 -i 47 -a 1 -x {1.0 3.0 24 ------- null}
h -t 0.73 -s 1 -d 3 -p tcp -e 1040 -c 1 -i 47 -a 1 -x {1.0 3.0 -1 ------- null}
r -t 0.73832 -s 1 -d 3 -p tcp -e 1040 -c 1 -i 45 -a 1 -x {1.0 3.0 23 ------- null}
+ -t 0.73832 -s 3 -d 1 -p ack -e 40 -c 1 -i 48 -a 1 -x {3.0 1.0 23 ------- null}
- -t 0.73832 -s 3 -d 1 -p ack -e 40 -c 1 -i 48 -a 1 -x {3.0 1.0 23 ------- null}
h -t 0.73832 -s 3 -d 1 -p ack -e 40 -c 1 -i 48 -a 1 -x {3.0 1.0 -1 ------- null}
r -t 0.73864 -s 3 -d 1 -p ack -e 40 -c 1 -i 46 -a 1 -x {3.0 1.0 22 ------- null}
+ -t 0.74 -s 1 -d 3 -p tcp -e 1040 -c 1 -i 49 -a 1 -x {1.0 3.0 25 ------- null}
- -t 0.74 -s 1 -d 3 -p tcp -e 1040 -c 1 -i 49 -a 1 -x {1.0 3.0 25 ------- null}
h -t 0.74 -s 1 -d 3 -p tcp -e 1040 -c 1 -i 49 -a 1 -x {1.0 3.0 -1 ------- null}
r -t 0.74832 -s 1 -d 3 -p tcp -e 1040 -c 1 -i 47 -a 1 -x {1.0 3.0 24 ------- null}
+ -t 0.74832 -s 3 -d 1 -p ack -e 40 -c 1 -i 50 -a 1 -x {3.0 1.0 24 ------- null}
- -t 0.74832 -s 3 -d 1 -p ack -e 40 -c 1 -i 50 -a 1 -x {3.0 1.0 24 ------- null}
h -t 0.74832 -s 3 -d 1 -p ack -e 40 -c 1 -i 50 -a 1 -x {3.0 1.0 -1 ------- null}
r -t 0.74864 -s 3 -d 1 -p ack -e 40 -c 1 -i 48 -a 1 -x {3.0 1.0 23 ------- null}
+ -t 0.75 -s 1 -d 3 -p tcp -e 1040 -c 1 -i 51 -a 1 -x {1.0 3.0 26 ------- null}
- -t 0.75 -s 1 -d 3 -p tcp -e 1040 -c 1 -i 51 -a 1 -x {1.0 3.0 26 ------- null}
h -t 0.75 -s 1 -d 3 -p tcp -e 1040 -c 1 -i 51 -a 1 -x {1.0 3.0 -1 ------- null}
r -t 0.75832 -s 1 -d 3 -p tcp -e 1040 -c 1 -i 49 -a 1 -x {1.0 3.0 25 ------- null}
+ -t 0.75832 -s 3 -d 1 -p ack -e 40 -c 1 -i 52 -a 1 -x {3.0 1.0 25 ------- null}
- -t 0.75832 -s 3 -d 1 -p ack -e 40 -c 1 -i 52 -a 1 -x {3.0 1.0 25 ------- null}
h -t 0.75832 -s 3 -d 1 -p ack -e 40 -c 1 -i 52 -a 1 -x {3.0 1.0 -1 ------- null}
r -t 0.75864 -s 3 -d 1 -p ack -e 40 -c 1 -i 50 -a 1 -x {3.0 1.0 24 ------- null}
+ -t 0.76 -s 1 -d 3 -p tcp -e 1040 -c 1 -i 53 -a 1 -x {1.0 3.0 27 ------- null}
- -t 0.76 -s 1 -d 3 -p tcp -e 1040 -c 1 -i 53 -a 1 -x {1.0 3.0 27 ------- null}
h -t 0.76 -s 1 -d 3 -p tcp -e 1040 -c 1 -i 53 -a 1 -x {1.0 3.0 -1 ------- null}
r -t 0.76832 -s 1 -d 3 -p tcp -e 1040 -c 1 -i 51 -a 1 -x {1.0 3.0 26 ------- null}
+ -t 0.76832 -s 3 -d 1 -p ack -e 40 -c 1 -i 54 -a 1 -x {3.0 1.0 26 ------- null}
- -t 0.76832 -s 3 -d 1 -p ack -e 40 -c 1 -i 54 -a 1 -x {3.0 1.0 26 ------- null}
h -t 0.76832 -s 3 -d 1 -p ack -e 40 -c 1 -i 54 -a 1 -x {3.0 1.0 -1 ------- null}
r -t 0.76864 -s 3 -d 1 -p ack -e 40 -c 1 -i 52 -a 1 -x {3.0 1.0 25 ------- null}
+ -t 0.77 -s 1 -d 3 -p tcp -e 1040 -c 1 -i 55 -a 1 -x {1.0 3.0 28 ------- null}
- -t 0.77 -s 1 -d 3 -p tcp -e 1040 -c 1 -i 55 -a 1 -x {1.0 3.0 28 ------- null}
h -t 0.77 -s 1 -d 3 -p tcp -e 1040 -c 1 -i 55 -a 1 -x {1.0 3.0 -1 ------- null}
r -t 0.77832 -s 1 -d 3 -p tcp -e 1040 -c 1 -i 53 -a 1 -x {1.0 3.0 27 ------- null}
+ -t 0.77832 -s 3 -d 1 -p ack -e 40 -c 1 -i 56 -a 1 -x {3.0 1.0 27 ------- null}
- -t 0.77832 -s 3 -d 1 -p ack -e 40 -c 1 -i 56 -a 1 -x {3.0 1.0 27 ------- null}
h -t 0.77832 -s 3 -d 1 -p ack -e 40 -c 1 -i 56 -a 1 -x {3.0 1.0 -1 ------- null}
r -t 0.77864 -s 3 -d 1 -p ack -e 40 -c 1 -i 54 -a 1 -x {3.0 1.0 26 ------- null}
+ -t 0.78 -s 1 -d 3 -p tcp -e 1040 -c 1 -i 57 -a 1 -x {1.0 3.0 29 ------- null}
- -t 0.78 -s 1 -d 3 -p tcp -e 1040 -c 1 -i 57 -a 1 -x {1.0 3.0 29 ------- null}
h -t 0.78 -s 1 -d 3 -p tcp -e 1040 -c 1 -i 57 -a 1 -x {1.0 3.0 -1 ------- null}
r -t 0.78832 -s 1 -d 3 -p tcp -e 1040 -c 1 -i 55 -a 1 -x {1.0 3.0 28 ------- null}
+ -t 0.78832 -s 3 -d 1 -p ack -e 40 -c 1 -i 58 -a 1 -x {3.0 1.0 28 ------- null}
- -t 0.78832 -s 3 -d 1 -p ack -e 40 -c 1 -i 58 -a 1 -x {3.0 1.0 28 ------- null}
h -t 0.78832 -s 3 -d 1 -p ack -e 40 -c 1 -i 58 -a 1 -x {3.0 1.0 -1 ------- null}
r -t 0.78864 -s 3 -d 1 -p ack -e 40 -c 1 -i 56 -a 1 -x {3.0 1.0 27 ------- null}
+ -t 0.79 -s 1 -d 3 -p tcp -e 1040 -c 1 -i 59 -a 1 -x {1.0 3.0 30 ------- null}
- -t 0.79 -s 1 -d 3 -p tcp -e 1040 -c 1 -i 59 -a 1 -x {1.0 3.0 30 ------- null}
h -t 0.79 -s 1 -d 3 -p tcp -e 1040 -c 1 -i 59 -a 1 -x {1.0 3.0 -1 ------- null}
r -t 0.79832 -s 1 -d 3 -p tcp -e 1040 -c 1 -i 57 -a 1 -x {1.0 3.0 29 ------- null}
+ -t 0.79832 -s 3 -d 1 -p ack -e 40 -c 1 -i 60 -a 1 -x {3.0 1.0 29 ------- null}
- -t 0.79832 -s 3 -d 1 -p ack -e 40 -c 1 -i 60 -a 1 -x {3.0 1.0 29 ------- null}
h -t 0.79832 -s 3 -d 1 -p ack -e 40 -c 1 -i 60 -a 1 -x {3.0 1.0 -1 ------- null}
r -t 0.79864 -s 3 -d 1 -p ack -e 40 -c 1 -i 58 -a 1 -x {3.0 1.0 28 ------- null}
+ -t 0.8 -s 1 -d 3 -p tcp -e 1040 -c 1 -i 61 -a 1 -x {1.0 3.0 31 ------- null}
- -t 0.8 -s 1 -d 3 -p tcp -e 1040 -c 1 -i 61 -a 1 -x {1.0 3.0 31 ------- null}
h -t 0.8 -s 1 -d 3 -p tcp -e 1040 -c 1 -i 61 -a 1 -x {1.0 3.0 -1 ------- null}
r -t 0.80832 -s 1 -d 3 -p tcp -e 1040 -c 1 -i 59 -a 1 -x {1.0 3.0 30 ------- null}
+ -t 0.80832 -s 3 -d 1 -p ack -e 40 -c 1 -i 62 -a 1 -x {3.0 1.0 30 ------- null}
- -t 0.80832 -s 3 -d 1 -p ack -e 40 -c 1 -i 62 -a 1 -x {3.0 1.0 30 ------- null}
h -t 0.80832 -s 3 -d 1 -p ack -e 40 -c 1 -i 62 -a 1 -x {3.0 1.0 -1 ------- null}
r -t 0.80864 -s 3 -d 1 -p ack -e 40 -c 1 -i 60 -a 1 -x {3.0 1.0 29 ------- null}
+ -t 0.81 -s 1 -d 3 -p tcp -e 1040 -c 1 -i 63 -a 1 -x {1.0 3.0 32 ------- null}
- -t 0.81 -s 1 -d 3 -p tcp -e 1040 -c 1 -i 63 -a 1 -x {1.0 3.0 32 ------- null}
h -t 0.81 -s 1 -d 3 -p tcp -e 1040 -c 1 -i 63 -a 1 -x {1.0 3.0 -1 ------- null}
r -t 0.81832 -s 1 -d 3 -p tcp -e 1040 -c 1 -i 61 -a 1 -x {1.0 3.0 31 ------- null}
+ -t 0.81832 -s 3 -d 1 -p ack -e 40 -c 1 -i 64 -a 1 -x {3.0 1.0 31 ------- null}
- -t 0.81832 -s 3 -d 1 -p ack -e 40 -c 1 -i 64 -a 1 -x {3.0 1.0 31 ------- null}
h -t 0.81832 -s 3 -d 1 -p ack -e 40 -c 1 -i 64 -a 1 -x {3.0 1.0 -1 ------- null}
r -t 0.81864 -s 3 -d 1 -p ack -e 40 -c 1 -i 62 -a 1 -x {3.0 1.0 30 ------- null}
+ -t 0.82 -s 1 -d 3 -p tcp -e 1040 -c 1 -i 65 -a 1 -x {1.0 3.0 33 ------- null}
- -t 0.82 -s 1 -d 3 -p tcp -e 1040 -c 1 -i 65 -a 1 -x {1.0 3.0 33 ------- null}
h -t 0.82 -s 1 -d 3 -p tcp -e 1040 -c 1 -i 65 -a 1 -x {1.0 3.0 -1 ------- null}
r -t 0.82832 -s 1 -d 3 -p tcp -e 1040 -c 1 -i 63 -a 1 -x {1.0 3.0 32 ------- null}
+ -t 0.82832 -s 3 -d 1 -p ack -e 40 -c 1 -i 66 -a 1 -x {3.0 1.0 32 ------- null}
- -t 0.82832 -s 3 -d 1 -p ack -e 40 -c 1 -i 66 -a 1 -x {3.0 1.0 32 ------- null}
h -t 0.82832 -s 3 -d 1 -p ack -e 40 -c 1 -i 66 -a 1 -x {3.0 1.0 -1 ------- null}
r -t 0.82864 -s 3 -d 1 -p ack -e 40 -c 1 -i 64 -a 1 -x {3.0 1.0 31 ------- null}
+ -t 0.83 -s 1 -d 3 -p tcp -e 1040 -c 1 -i 67 -a 1 -x {1.0 3.0 34 ------- null}
- -t 0.83 -s 1 -d 3 -p tcp -e 1040 -c 1 -i 67 -a 1 -x {1.0 3.0 34 ------- null}
h -t 0.83 -s 1 -d 3 -p tcp -e 1040 -c 1 -i 67 -a 1 -x {1.0 3.0 -1 ------- null}
r -t 0.83832 -s 1 -d 3 -p tcp -e 1040 -c 1 -i 65 -a 1 -x {1.0 3.0 33 ------- null}
+ -t 0.83832 -s 3 -d 1 -p ack -e 40 -c 1 -i 68 -a 1 -x {3.0 1.0 33 ------- null}
- -t 0.83832 -s 3 -d 1 -p ack -e 40 -c 1 -i 68 -a 1 -x {3.0 1.0 33 ------- null}
h -t 0.83832 -s 3 -d 1 -p ack -e 40 -c 1 -i 68 -a 1 -x {3.0 1.0 -1 ------- null}
r -t 0.83864 -s 3 -d 1 -p ack -e 40 -c 1 -i 66 -a 1 -x {3.0 1.0 32 ------- null}
+ -t 0.84 -s 1 -d 3 -p tcp -e 1040 -c 1 -i 69 -a 1 -x {1.0 3.0 35 ------- null}
- -t 0.84 -s 1 -d 3 -p tcp -e 1040 -c 1 -i 69 -a 1 -x {1.0 3.0 35 ------- null}
h -t 0.84 -s 1 -d 3 -p tcp -e 1040 -c 1 -i 69 -a 1 -x {1.0 3.0 -1 ------- null}
r -t 0.84832 -s 1 -d 3 -p tcp -e 1040 -c 1 -i 67 -a 1 -x {1.0 3.0 34 ------- null}
+ -t 0.84832 -s 3 -d 1 -p ack -e 40 -c 1 -i 70 -a 1 -x {3.0 1.0 34 ------- null}
- -t 0.84832 -s 3 -d 1 -p ack -e 40 -c 1 -i 70 -a 1 -x {3.0 1.0 34 ------- null}
h -t 0.84832 -s 3 -d 1 -p ack -e 40 -c 1 -i 70 -a 1 -x {3.0 1.0 -1 ------- null}
r -t 0.84864 -s 3 -d 1 -p ack -e 40 -c 1 -i 68 -a 1 -x {3.0 1.0 33 ------- null}
+ -t 0.85 -s 1 -d 3 -p tcp -e 1040 -c 1 -i 71 -a 1 -x {1.0 3.0 36 ------- null}
- -t 0.85 -s 1 -d 3 -p tcp -e 1040 -c 1 -i 71 -a 1 -x {1.0 3.0 36 ------- null}
h -t 0.85 -s 1 -d 3 -p tcp -e 1040 -c 1 -i 71 -a 1 -x {1.0 3.0 -1 ------- null}
r -t 0.85832 -s 1 -d 3 -p tcp -e 1040 -c 1 -i 69 -a 1 -x {1.0 3.0 35 ------- null}
+ -t 0.85832 -s 3 -d 1 -p ack -e 40 -c 1 -i 72 -a 1 -x {3.0 1.0 35 ------- null}
- -t 0.85832 -s 3 -d 1 -p ack -e 40 -c 1 -i 72 -a 1 -x {3.0 1.0 35 ------- null}
h -t 0.85832 -s 3 -d 1 -p ack -e 40 -c 1 -i 72 -a 1 -x {3.0 1.0 -1 ------- null}
r -t 0.85864 -s 3 -d 1 -p ack -e 40 -c 1 -i 70 -a 1 -x {3.0 1.0 34 ------- null}
+ -t 0.86 -s 1 -d 3 -p tcp -e 1040 -c 1 -i 73 -a 1 -x {1.0 3.0 37 ------- null}
- -t 0.86 -s 1 -d 3 -p tcp -e 1040 -c 1 -i 73 -a 1 -x {1.0 3.0 37 ------- null}
h -t 0.86 -s 1 -d 3 -p tcp -e 1040 -c 1 -i 73 -a 1 -x {1.0 3.0 -1 ------- null}
r -t 0.86832 -s 1 -d 3 -p tcp -e 1040 -c 1 -i 71 -a 1 -x {1.0 3.0 36 ------- null}
+ -t 0.86832 -s 3 -d 1 -p ack -e 40 -c 1 -i 74 -a 1 -x {3.0 1.0 36 ------- null}
- -t 0.86832 -s 3 -d 1 -p ack -e 40 -c 1 -i 74 -a 1 -x {3.0 1.0 36 ------- null}
h -t 0.86832 -s 3 -d 1 -p ack -e 40 -c 1 -i 74 -a 1 -x {3.0 1.0 -1 ------- null}
r -t 0.86864 -s 3 -d 1 -p ack -e 40 -c 1 -i 72 -a 1 -x {3.0 1.0 35 ------- null}
+ -t 0.87 -s 1 -d 3 -p tcp -e 1040 -c 1 -i 75 -a 1 -x {1.0 3.0 38 ------- null}
- -t 0.87 -s 1 -d 3 -p tcp -e 1040 -c 1 -i 75 -a 1 -x {1.0 3.0 38 ------- null}
h -t 0.87 -s 1 -d 3 -p tcp -e 1040 -c 1 -i 75 -a 1 -x {1.0 3.0 -1 ------- null}
r -t 0.87832 -s 1 -d 3 -p tcp -e 1040 -c 1 -i 73 -a 1 -x {1.0 3.0 37 ------- null}
+ -t 0.87832 -s 3 -d 1 -p ack -e 40 -c 1 -i 76 -a 1 -x {3.0 1.0 37 ------- null}
- -t 0.87832 -s 3 -d 1 -p ack -e 40 -c 1 -i 76 -a 1 -x {3.0 1.0 37 ------- null}
h -t 0.87832 -s 3 -d 1 -p ack -e 40 -c 1 -i 76 -a 1 -x {3.0 1.0 -1 ------- null}
r -t 0.87864 -s 3 -d 1 -p ack -e 40 -c 1 -i 74 -a 1 -x {3.0 1.0 36 ------- null}
+ -t 0.88 -s 1 -d 3 -p tcp -e 1040 -c 1 -i 77 -a 1 -x {1.0 3.0 39 ------- null}
- -t 0.88 -s 1 -d 3 -p tcp -e 1040 -c 1 -i 77 -a 1 -x {1.0 3.0 39 ------- null}
h -t 0.88 -s 1 -d 3 -p tcp -e 1040 -c 1 -i 77 -a 1 -x {1.0 3.0 -1 ------- null}
r -t 0.88832 -s 1 -d 3 -p tcp -e 1040 -c 1 -i 75 -a 1 -x {1.0 3.0 38 ------- null}
+ -t 0.88832 -s 3 -d 1 -p ack -e 40 -c 1 -i 78 -a 1 -x {3.0 1.0 38 ------- null}
- -t 0.88832 -s 3 -d 1 -p ack -e 40 -c 1 -i 78 -a 1 -x {3.0 1.0 38 ------- null}
h -t 0.88832 -s 3 -d 1 -p ack -e 40 -c 1 -i 78 -a 1 -x {3.0 1.0 -1 ------- null}
r -t 0.88864 -s 3 -d 1 -p ack -e 40 -c 1 -i 76 -a 1 -x {3.0 1.0 37 ------- null}
+ -t 0.89 -s 1 -d 3 -p tcp -e 1040 -c 1 -i 79 -a 1 -x {1.0 3.0 40 ------- null}
- -t 0.89 -s 1 -d 3 -p tcp -e 1040 -c 1 -i 79 -a 1 -x {1.0 3.0 40 ------- null}
h -t 0.89 -s 1 -d 3 -p tcp -e 1040 -c 1 -i 79 -a 1 -x {1.0 3.0 -1 ------- null}
r -t 0.89832 -s 1 -d 3 -p tcp -e 1040 -c 1 -i 77 -a 1 -x {1.0 3.0 39 ------- null}
+ -t 0.89832 -s 3 -d 1 -p ack -e 40 -c 1 -i 80 -a 1 -x {3.0 1.0 39 ------- null}
- -t 0.89832 -s 3 -d 1 -p ack -e 40 -c 1 -i 80 -a 1 -x {3.0 1.0 39 ------- null}
h -t 0.89832 -s 3 -d 1 -p ack -e 40 -c 1 -i 80 -a 1 -x {3.0 1.0 -1 ------- null}
r -t 0.89864 -s 3 -d 1 -p ack -e 40 -c 1 -i 78 -a 1 -x {3.0 1.0 38 ------- null}
+ -t 0.9 -s 1 -d 3 -p tcp -e 1040 -c 1 -i 81 -a 1 -x {1.0 3.0 41 ------- null}
- -t 0.9 -s 1 -d 3 -p tcp -e 1040 -c 1 -i 81 -a 1 -x {1.0 3.0 41 ------- null}
h -t 0.9 -s 1 -d 3 -p tcp -e 1040 -c 1 -i 81 -a 1 -x {1.0 3.0 -1 ------- null}
r -t 0.90832 -s 1 -d 3 -p tcp -e 1040 -c 1 -i 79 -a 1 -x {1.0 3.0 40 ------- null}
+ -t 0.90832 -s 3 -d 1 -p ack -e 40 -c 1 -i 82 -a 1 -x {3.0 1.0 40 ------- null}
- -t 0.90832 -s 3 -d 1 -p ack -e 40 -c 1 -i 82 -a 1 -x {3.0 1.0 40 ------- null}
h -t 0.90832 -s 3 -d 1 -p ack -e 40 -c 1 -i 82 -a 1 -x {3.0 1.0 -1 ------- null}
r -t 0.90864 -s 3 -d 1 -p ack -e 40 -c 1 -i 80 -a 1 -x {3.0 1.0 39 ------- null}
+ -t 0.91 -s 1 -d 3 -p tcp -e 1040 -c 1 -i 83 -a 1 -x {1.0 3.0 42 ------- null}
- -t 0.91 -s 1 -d 3 -p tcp -e 1040 -c 1 -i 83 -a 1 -x {1.0 3.0 42 ------- null}
h -t 0.91 -s 1 -d 3 -p tcp -e 1040 -c 1 -i 83 -a 1 -x {1.0 3.0 -1 ------- null}
r -t 0.91832 -s 1 -d 3 -p tcp -e 1040 -c 1 -i 81 -a 1 -x {1.0 3.0 41 ------- null}
+ -t 0.91832 -s 3 -d 1 -p ack -e 40 -c 1 -i 84 -a 1 -x {3.0 1.0 41 ------- null}
- -t 0.91832 -s 3 -d 1 -p ack -e 40 -c 1 -i 84 -a 1 -x {3.0 1.0 41 ------- null}
h -t 0.91832 -s 3 -d 1 -p ack -e 40 -c 1 -i 84 -a 1 -x {3.0 1.0 -1 ------- null}
r -t 0.91864 -s 3 -d 1 -p ack -e 40 -c 1 -i 82 -a 1 -x {3.0 1.0 40 ------- null}
+ -t 0.92 -s 1 -d 3 -p tcp -e 1040 -c 1 -i 85 -a 1 -x {1.0 3.0 43 ------- null}
- -t 0.92 -s 1 -d 3 -p tcp -e 1040 -c 1 -i 85 -a 1 -x {1.0 3.0 43 ------- null}
h -t 0.92 -s 1 -d 3 -p tcp -e 1040 -c 1 -i 85 -a 1 -x {1.0 3.0 -1 ------- null}
r -t 0.92832 -s 1 -d 3 -p tcp -e 1040 -c 1 -i 83 -a 1 -x {1.0 3.0 42 ------- null}
+ -t 0.92832 -s 3 -d 1 -p ack -e 40 -c 1 -i 86 -a 1 -x {3.0 1.0 42 ------- null}
- -t 0.92832 -s 3 -d 1 -p ack -e 40 -c 1 -i 86 -a 1 -x {3.0 1.0 42 ------- null}
h -t 0.92832 -s 3 -d 1 -p ack -e 40 -c 1 -i 86 -a 1 -x {3.0 1.0 -1 ------- null}
r -t 0.92864 -s 3 -d 1 -p ack -e 40 -c 1 -i 84 -a 1 -x {3.0 1.0 41 ------- null}
+ -t 0.93 -s 1 -d 3 -p tcp -e 1040 -c 1 -i 87 -a 1 -x {1.0 3.0 44 ------- null}
- -t 0.93 -s 1 -d 3 -p tcp -e 1040 -c 1 -i 87 -a 1 -x {1.0 3.0 44 ------- null}
h -t 0.93 -s 1 -d 3 -p tcp -e 1040 -c 1 -i 87 -a 1 -x {1.0 3.0 -1 ------- null}
r -t 0.93832 -s 1 -d 3 -p tcp -e 1040 -c 1 -i 85 -a 1 -x {1.0 3.0 43 ------- null}
+ -t 0.93832 -s 3 -d 1 -p ack -e 40 -c 1 -i 88 -a 1 -x {3.0 1.0 43 ------- null}
- -t 0.93832 -s 3 -d 1 -p ack -e 40 -c 1 -i 88 -a 1 -x {3.0 1.0 43 ------- null}
h -t 0.93832 -s 3 -d 1 -p ack -e 40 -c 1 -i 88 -a 1 -x {3.0 1.0 -1 ------- null}
r -t 0.93864 -s 3 -d 1 -p ack -e 40 -c 1 -i 86 -a 1 -x {3.0 1.0 42 ------- null}
+ -t 0.94 -s 1 -d 3 -p tcp -e 1040 -c 1 -i 89 -a 1 -x {1.0 3.0 45 ------- null}
- -t 0.94 -s 1 -d 3 -p tcp -e 1040 -c 1 -i 89 -a 1 -x {1.0 3.0 45 ------- null}
h -t 0.94 -s 1 -d 3 -p tcp -e 1040 -c 1 -i 89 -a 1 -x {1.0 3.0 -1 ------- null}
r -t 0.94832 -s 1 -d 3 -p tcp -e 1040 -c 1 -i 87 -a 1 -x {1.0 3.0 44 ------- null}
+ -t 0.94832 -s 3 -d 1 -p ack -e 40 -c 1 -i 90 -a 1 -x {3.0 1.0 44 ------- null}
- -t 0.94832 -s 3 -d 1 -p ack -e 40 -c 1 -i 90 -a 1 -x {3.0 1.0 44 ------- null}
h -t 0.94832 -s 3 -d 1 -p ack -e 40 -c 1 -i 90 -a 1 -x {3.0 1.0 -1 ------- null}
r -t 0.94864 -s 3 -d 1 -p ack -e 40 -c 1 -i 88 -a 1 -x {3.0 1.0 43 ------- null}
+ -t 0.95 -s 1 -d 3 -p tcp -e 1040 -c 1 -i 91 -a 1 -x {1.0 3.0 46 ------- null}